# vtk DataFile Version 3.0
v_vmean_p.vtk
ASCII
DATASET STRUCTURED_GRID
DIMENSIONS        32        8       32
POINTS                 8192 float
 -0.484375000000000      -8.750000000000001E-002 -0.484375000000000     
 -0.453125000000000      -8.750000000000001E-002 -0.484375000000000     
 -0.421875000000000      -8.750000000000001E-002 -0.484375000000000     
 -0.390625000000000      -8.750000000000001E-002 -0.484375000000000     
 -0.359375000000000      -8.750000000000001E-002 -0.484375000000000     
 -0.328125000000000      -8.750000000000001E-002 -0.484375000000000     
 -0.296875000000000      -8.750000000000001E-002 -0.484375000000000     
 -0.265625000000000      -8.750000000000001E-002 -0.484375000000000     
 -0.234375000000000      -8.750000000000001E-002 -0.484375000000000     
 -0.203125000000000      -8.750000000000001E-002 -0.484375000000000     
 -0.171875000000000      -8.750000000000001E-002 -0.484375000000000     
 -0.140625000000000      -8.750000000000001E-002 -0.484375000000000     
 -0.109375000000000      -8.750000000000001E-002 -0.484375000000000     
 -7.812500000000000E-002 -8.750000000000001E-002 -0.484375000000000     
 -4.687500000000000E-002 -8.750000000000001E-002 -0.484375000000000     
 -1.562500000000000E-002 -8.750000000000001E-002 -0.484375000000000     
  1.562500000000000E-002 -8.750000000000001E-002 -0.484375000000000     
  4.687500000000000E-002 -8.750000000000001E-002 -0.484375000000000     
  7.812500000000000E-002 -8.750000000000001E-002 -0.484375000000000     
  0.109375000000000      -8.750000000000001E-002 -0.484375000000000     
  0.140625000000000      -8.750000000000001E-002 -0.484375000000000     
  0.171875000000000      -8.750000000000001E-002 -0.484375000000000     
  0.203125000000000      -8.750000000000001E-002 -0.484375000000000     
  0.234375000000000      -8.750000000000001E-002 -0.484375000000000     
  0.265625000000000      -8.750000000000001E-002 -0.484375000000000     
  0.296875000000000      -8.750000000000001E-002 -0.484375000000000     
  0.328125000000000      -8.750000000000001E-002 -0.484375000000000     
  0.359375000000000      -8.750000000000001E-002 -0.484375000000000     
  0.390625000000000      -8.750000000000001E-002 -0.484375000000000     
  0.421875000000000      -8.750000000000001E-002 -0.484375000000000     
  0.453125000000000      -8.750000000000001E-002 -0.484375000000000     
  0.484375000000000      -8.750000000000001E-002 -0.484375000000000     
 -0.484375000000000      -6.250000000000000E-002 -0.484375000000000     
 -0.453125000000000      -6.250000000000000E-002 -0.484375000000000     
 -0.421875000000000      -6.250000000000000E-002 -0.484375000000000     
 -0.390625000000000      -6.250000000000000E-002 -0.484375000000000     
 -0.359375000000000      -6.250000000000000E-002 -0.484375000000000     
 -0.328125000000000      -6.250000000000000E-002 -0.484375000000000     
 -0.296875000000000      -6.250000000000000E-002 -0.484375000000000     
 -0.265625000000000      -6.250000000000000E-002 -0.484375000000000     
 -0.234375000000000      -6.250000000000000E-002 -0.484375000000000     
 -0.203125000000000      -6.250000000000000E-002 -0.484375000000000     
 -0.171875000000000      -6.250000000000000E-002 -0.484375000000000     
 -0.140625000000000      -6.250000000000000E-002 -0.484375000000000     
 -0.109375000000000      -6.250000000000000E-002 -0.484375000000000     
 -7.812500000000000E-002 -6.250000000000000E-002 -0.484375000000000     
 -4.687500000000000E-002 -6.250000000000000E-002 -0.484375000000000     
 -1.562500000000000E-002 -6.250000000000000E-002 -0.484375000000000     
  1.562500000000000E-002 -6.250000000000000E-002 -0.484375000000000     
  4.687500000000000E-002 -6.250000000000000E-002 -0.484375000000000     
  7.812500000000000E-002 -6.250000000000000E-002 -0.484375000000000     
  0.109375000000000      -6.250000000000000E-002 -0.484375000000000     
  0.140625000000000      -6.250000000000000E-002 -0.484375000000000     
  0.171875000000000      -6.250000000000000E-002 -0.484375000000000     
  0.203125000000000      -6.250000000000000E-002 -0.484375000000000     
  0.234375000000000      -6.250000000000000E-002 -0.484375000000000     
  0.265625000000000      -6.250000000000000E-002 -0.484375000000000     
  0.296875000000000      -6.250000000000000E-002 -0.484375000000000     
  0.328125000000000      -6.250000000000000E-002 -0.484375000000000     
  0.359375000000000      -6.250000000000000E-002 -0.484375000000000     
  0.390625000000000      -6.250000000000000E-002 -0.484375000000000     
  0.421875000000000      -6.250000000000000E-002 -0.484375000000000     
  0.453125000000000      -6.250000000000000E-002 -0.484375000000000     
  0.484375000000000      -6.250000000000000E-002 -0.484375000000000     
 -0.484375000000000      -3.750000000000001E-002 -0.484375000000000     
 -0.453125000000000      -3.750000000000001E-002 -0.484375000000000     
 -0.421875000000000      -3.750000000000001E-002 -0.484375000000000     
 -0.390625000000000      -3.750000000000001E-002 -0.484375000000000     
 -0.359375000000000      -3.750000000000001E-002 -0.484375000000000     
 -0.328125000000000      -3.750000000000001E-002 -0.484375000000000     
 -0.296875000000000      -3.750000000000001E-002 -0.484375000000000     
 -0.265625000000000      -3.750000000000001E-002 -0.484375000000000     
 -0.234375000000000      -3.750000000000001E-002 -0.484375000000000     
 -0.203125000000000      -3.750000000000001E-002 -0.484375000000000     
 -0.171875000000000      -3.750000000000001E-002 -0.484375000000000     
 -0.140625000000000      -3.750000000000001E-002 -0.484375000000000     
 -0.109375000000000      -3.750000000000001E-002 -0.484375000000000     
 -7.812500000000000E-002 -3.750000000000001E-002 -0.484375000000000     
 -4.687500000000000E-002 -3.750000000000001E-002 -0.484375000000000     
 -1.562500000000000E-002 -3.750000000000001E-002 -0.484375000000000     
  1.562500000000000E-002 -3.750000000000001E-002 -0.484375000000000     
  4.687500000000000E-002 -3.750000000000001E-002 -0.484375000000000     
  7.812500000000000E-002 -3.750000000000001E-002 -0.484375000000000     
  0.109375000000000      -3.750000000000001E-002 -0.484375000000000     
  0.140625000000000      -3.750000000000001E-002 -0.484375000000000     
  0.171875000000000      -3.750000000000001E-002 -0.484375000000000     
  0.203125000000000      -3.750000000000001E-002 -0.484375000000000     
  0.234375000000000      -3.750000000000001E-002 -0.484375000000000     
  0.265625000000000      -3.750000000000001E-002 -0.484375000000000     
  0.296875000000000      -3.750000000000001E-002 -0.484375000000000     
  0.328125000000000      -3.750000000000001E-002 -0.484375000000000     
  0.359375000000000      -3.750000000000001E-002 -0.484375000000000     
  0.390625000000000      -3.750000000000001E-002 -0.484375000000000     
  0.421875000000000      -3.750000000000001E-002 -0.484375000000000     
  0.453125000000000      -3.750000000000001E-002 -0.484375000000000     
  0.484375000000000      -3.750000000000001E-002 -0.484375000000000     
 -0.484375000000000      -1.250000000000000E-002 -0.484375000000000     
 -0.453125000000000      -1.250000000000000E-002 -0.484375000000000     
 -0.421875000000000      -1.250000000000000E-002 -0.484375000000000     
 -0.390625000000000      -1.250000000000000E-002 -0.484375000000000     
 -0.359375000000000      -1.250000000000000E-002 -0.484375000000000     
 -0.328125000000000      -1.250000000000000E-002 -0.484375000000000     
 -0.296875000000000      -1.250000000000000E-002 -0.484375000000000     
 -0.265625000000000      -1.250000000000000E-002 -0.484375000000000     
 -0.234375000000000      -1.250000000000000E-002 -0.484375000000000     
 -0.203125000000000      -1.250000000000000E-002 -0.484375000000000     
 -0.171875000000000      -1.250000000000000E-002 -0.484375000000000     
 -0.140625000000000      -1.250000000000000E-002 -0.484375000000000     
 -0.109375000000000      -1.250000000000000E-002 -0.484375000000000     
 -7.812500000000000E-002 -1.250000000000000E-002 -0.484375000000000     
 -4.687500000000000E-002 -1.250000000000000E-002 -0.484375000000000     
 -1.562500000000000E-002 -1.250000000000000E-002 -0.484375000000000     
  1.562500000000000E-002 -1.250000000000000E-002 -0.484375000000000     
  4.687500000000000E-002 -1.250000000000000E-002 -0.484375000000000     
  7.812500000000000E-002 -1.250000000000000E-002 -0.484375000000000     
  0.109375000000000      -1.250000000000000E-002 -0.484375000000000     
  0.140625000000000      -1.250000000000000E-002 -0.484375000000000     
  0.171875000000000      -1.250000000000000E-002 -0.484375000000000     
  0.203125000000000      -1.250000000000000E-002 -0.484375000000000     
  0.234375000000000      -1.250000000000000E-002 -0.484375000000000     
  0.265625000000000      -1.250000000000000E-002 -0.484375000000000     
  0.296875000000000      -1.250000000000000E-002 -0.484375000000000     
  0.328125000000000      -1.250000000000000E-002 -0.484375000000000     
  0.359375000000000      -1.250000000000000E-002 -0.484375000000000     
  0.390625000000000      -1.250000000000000E-002 -0.484375000000000     
  0.421875000000000      -1.250000000000000E-002 -0.484375000000000     
  0.453125000000000      -1.250000000000000E-002 -0.484375000000000     
  0.484375000000000      -1.250000000000000E-002 -0.484375000000000     
 -0.484375000000000       1.250000000000000E-002 -0.484375000000000     
 -0.453125000000000       1.250000000000000E-002 -0.484375000000000     
 -0.421875000000000       1.250000000000000E-002 -0.484375000000000     
 -0.390625000000000       1.250000000000000E-002 -0.484375000000000     
 -0.359375000000000       1.250000000000000E-002 -0.484375000000000     
 -0.328125000000000       1.250000000000000E-002 -0.484375000000000     
 -0.296875000000000       1.250000000000000E-002 -0.484375000000000     
[...]
POINT_DATA      8192
VECTORS velocity float
  1.398399932090222E-004 -4.152735692246222E-006 -1.559788880623903E-004
 -3.234321510200672E-004  6.513534784582608E-005 -1.094964846060131E-004
 -6.719976384480338E-004  8.305974250822067E-005 -1.148321250076748E-004
 -1.313182835505015E-003  1.002019146056337E-004 -1.095422437119662E-004
 -1.754584210762112E-003  9.619642813684276E-005 -1.253735097519311E-004
 -2.403879975781158E-003  1.005526677107035E-004 -1.186167852006249E-004
 -2.836188518528298E-003  8.994894121123029E-005 -1.253553979271303E-004
 -3.461786011539392E-003  9.150962417908829E-005 -1.051460619275237E-004
 -3.863228433488485E-003  7.447419322266460E-005 -1.083590664886808E-004
 -4.401916493223481E-003  7.330455764148988E-005 -7.836802095814874E-005
 -4.735482658902565E-003  5.101682298970730E-005 -8.357936676129081E-005
 -5.110165712361248E-003  5.041512666591251E-005 -4.944100717353058E-005
 -5.348376513197908E-003  2.810654116739657E-005 -5.209710621483409E-005
 -5.577053853074934E-003  2.971622569262982E-005 -1.656794162574254E-005
 -5.721614675168487E-003  9.028334666135362E-006 -1.707344655744358E-005
 -5.850010729781272E-003  1.169499548997783E-005  2.049741431616939E-005
 -5.911212877392352E-003 -9.417192099944391E-006  1.938397983219685E-005
 -5.956349470487668E-003 -8.440987656635635E-006  6.074376125805335E-005
 -5.932199446032315E-003 -3.367841551789637E-005  5.353416824772061E-005
 -5.855162604324063E-003 -3.723360038596320E-005  9.606393184935898E-005
 -5.715685353523204E-003 -6.874156799120929E-005  7.365623025309427E-005
 -5.425415086240682E-003 -7.615725119191965E-005  1.078883209873208E-004
 -5.125605129158176E-003 -1.090348613213160E-004  6.797893380891925E-005
 -4.561912972506845E-003 -1.132828042178664E-004  8.859356914677815E-005
 -4.113986198624376E-003 -1.370532349563664E-004  5.308827163274155E-005
 -3.380856428016989E-003 -1.359139881277137E-004  6.506730835041364E-005
 -2.851463268810812E-003 -1.494276993633998E-004  3.743074670153335E-005
 -2.059850031765357E-003 -1.429943023841843E-004  4.049458524209126E-005
 -1.512085970222589E-003 -1.436812051583515E-004  1.590979322772816E-005
 -7.514346058607665E-004 -1.177827481000345E-004  2.438681574799499E-005
 -3.475084963563295E-004 -8.628587041777703E-005  2.688619426881224E-005
  1.404259706310004E-004 -4.940538942211530E-006  9.640121137595941E-005
  1.551504491377837E-004 -2.175191783613383E-005 -1.842423631657463E-004
 -6.644811735512524E-004  8.686602265209337E-005 -5.742777185016491E-006
 -1.443039564748945E-003  1.158145766543608E-004  3.619821744368024E-005
 -2.636949423523194E-003  1.482472915087915E-004  6.123627567084136E-005
 -3.566971261744312E-003  1.451733559199949E-004  3.950632961870603E-005
 -4.778825717181656E-003  1.510312544147376E-004  4.506694254203611E-005
 -5.685313895054275E-003  1.369425698804386E-004  2.762804463524651E-005
 -6.844824170946862E-003  1.356132988562167E-004  4.526703006864158E-005
 -7.673168554721075E-003  1.124604027311678E-004  2.247019470129535E-005
 -8.660480294564362E-003  1.065306093804498E-004  4.377721007312942E-005
 -9.325665864844805E-003  7.651918054441848E-005  8.229015870384553E-006
 -1.000624112082910E-002  7.117206059693309E-005  3.296015516385232E-005
 -1.046250308944935E-002  4.067018527310629E-005  3.654913904538254E-006
 -1.086941678916374E-002  3.749301323383462E-005  3.503480831053962E-005
 -1.113387791838051E-002  7.909601240567766E-006  1.488936535738710E-005
 -1.134714836296099E-002  4.380309965222561E-006  5.261475968262943E-005
 -1.144556059628680E-002 -2.801209983586009E-005  3.319741982761488E-005
 -1.149451062180192E-002 -3.671402483461991E-005  7.372747690134489E-005
 -1.142054562246695E-002 -7.791304622496914E-005  3.899177464228243E-005
 -1.123942438590734E-002 -9.594175210507906E-005  7.122098055377592E-005
 -1.093135783816887E-002 -1.484395031297636E-004  1.394025566102520E-006
 -1.036900596250218E-002 -1.724275563057318E-004  1.127840791408782E-005
 -9.744335681532034E-003 -2.261138881976265E-004 -9.004018563850222E-005
 -8.708956019466252E-003 -2.415953589344992E-004 -9.352432062274380E-005
 -7.804754160058898E-003 -2.781539018319614E-004 -1.731870022988207E-004
 -6.480017813874132E-003 -2.802946867874515E-004 -1.738189160239302E-004
 -5.427114550290239E-003 -2.972246302833845E-004 -2.262891778545061E-004
 -4.002023925610751E-003 -2.841230725540083E-004 -2.273138620149280E-004
 -2.913418753184125E-003 -2.753195059043804E-004 -2.581292813420408E-004
 -1.542919073613413E-003 -2.214840156654929E-004 -2.174848500214196E-004
 -6.890970249148905E-004 -1.605217990843585E-004 -1.445043552681460E-004
  1.615604475579336E-004 -2.282104433470449E-005  9.086461179986010E-005
  1.596205828859919E-004 -2.731824062183124E-005 -2.053207516515364E-004
 -8.118351786892112E-004  6.491198596006270E-005  6.338345013191034E-005
 -1.834951200947406E-003  9.221261066509163E-005  1.378616219626575E-004
 -3.292364888575209E-003  1.237652822032336E-004  1.759864886295416E-004
 -4.479920754258204E-003  1.235430391537882E-004  1.519981154204362E-004
 -5.953780942706564E-003  1.273416181987497E-004  1.546555584047805E-004
 -7.101384806988201E-003  1.168268633305083E-004  1.312773806463184E-004
 -8.504085104657392E-003  1.125081144414117E-004  1.430679745695805E-004
 -9.542735271258027E-003  9.490219638122977E-005  1.092602541327458E-004
 -1.072805843931537E-002  8.637137078430482E-005  1.199083894994943E-004
 -1.154823724167993E-002  6.401064802317981E-005  6.840326554100307E-005
 -1.235943073153098E-002  5.578816268290244E-005  8.203799544739221E-005
 -1.291162347519519E-002  3.274358730455204E-005  3.826842430046613E-005
 -1.339074986679738E-002  2.552526170775437E-005  6.103365972540836E-005
 -1.370389273961430E-002  2.145453130606830E-006  2.901267117571689E-005
 -1.394658544750942E-002 -6.724996081522925E-006  5.918162092168582E-005
 -1.405520083505974E-002 -3.397912981536005E-005  2.723542850648752E-005
 -1.409588247371908E-002 -4.901456275255356E-005  5.737429010750677E-005
 -1.399040381066597E-002 -8.531236709808354E-005  3.968597899188788E-006
 -1.375140376772091E-002 -1.098263142721653E-004  1.831564295950871E-005
 -1.335265883356322E-002 -1.564780482932521E-004 -8.059301535844862E-005
 -1.265769387725506E-002 -1.858478344266344E-004 -9.565379302908171E-005
 -1.186604442952882E-002 -2.324142044254924E-004 -2.302048110112029E-004
 -1.061515346182457E-002 -2.519025711144680E-004 -2.530798654638056E-004
 -9.487447630429031E-003 -2.820387812715784E-004 -3.535378843694931E-004
 -7.902205875773559E-003 -2.869507383366321E-004 -3.631152940847779E-004
 -6.598178424629027E-003 -2.983777395838869E-004 -4.250574214724786E-004
 -4.894543122364161E-003 -2.857722940596434E-004 -4.273562772139011E-004
 -3.539214717756816E-003 -2.712431434039479E-004 -4.551103414279080E-004
 -1.893544497111002E-003 -2.159541435117571E-004 -3.878958222171036E-004
 -8.044468768469101E-004 -1.532275238109769E-004 -2.596150625552199E-004
  1.813915509049488E-004 -2.806984564741988E-005  9.090709314571411E-005
  1.608840581281091E-004 -8.011955206888672E-006 -2.149838477833165E-004
 -8.707532996205668E-004  2.348529975404480E-005  9.597203479032289E-005
 -2.000046691391753E-003  3.232097874828460E-005  1.854781841975561E-004
 -3.563728299952506E-003  4.288713291347843E-005  2.294836299146796E-004
 -4.857856671006617E-003  4.245624910301783E-005  2.047242420121290E-004
 -6.435776046932092E-003  4.374110981885478E-005  2.054051942381244E-004
 -7.681620284649616E-003  3.979565816592634E-005  1.793565913946974E-004
 -9.179735756217658E-003  3.844517742935844E-005  1.872769764592616E-004
 -1.030259349074971E-002  3.200975262160176E-005  1.485355962494361E-004
 -1.156376535949887E-002  2.929843370477580E-005  1.529434980683117E-004
 -1.244387249762824E-002  2.125971867932107E-005  9.483074476061867E-005
 -1.330358023438561E-002  1.877890301010593E-005  1.021983892876276E-004
 -1.389125579331015E-002  1.054479634983514E-005  5.243308913096276E-005
 -1.439590116708425E-002  8.503362380053878E-006  6.993482127130796E-005
 -1.472573576179335E-002  1.872250717104097E-007  3.265953065220345E-005
 -1.497719283654394E-002 -2.352779229973280E-006  5.766328520105936E-005
 -1.508734396276879E-002 -1.194472082236610E-005  1.974182632421035E-005
 -1.512185485324089E-002 -1.651004982199817E-005  4.297194316764506E-005
 -1.500123271380930E-002 -2.907591611885762E-005 -1.927328880164663E-005
 -1.473651928181946E-002 -3.673819610760359E-005 -1.535316923874671E-005
 -1.429891842359869E-002 -5.261534256485425E-005 -1.271175888747961E-004
 -1.354967522304969E-002 -6.175433885554923E-005 -1.550233767162392E-004
 -1.268953048702656E-002 -7.737400637515706E-005 -3.029318615977479E-004
 -1.135456599204728E-002 -8.313881910587685E-005 -3.348762390484601E-004
 -1.013848308359981E-002 -9.329018270125775E-005 -4.429071713738124E-004
 -8.454341211956958E-003 -9.448243673053445E-005 -4.565194546182921E-004
 -7.052625288393041E-003 -9.861056994242048E-005 -5.214342648895136E-004
 -5.243624570018340E-003 -9.436843678284405E-005 -5.241209055129730E-004
 -3.783107571559267E-003 -8.995156776868700E-005 -5.491617665737364E-004
 -2.031126159100940E-003 -7.149413389166099E-005 -4.687563571771447E-004
 -8.447707877810813E-004 -5.062110054067796E-005 -3.134222499297290E-004
  1.909177432015619E-004 -8.256490186093134E-006  9.134880850931285E-005
  1.608840581035233E-004  8.011954732256818E-006 -2.149838478164529E-004
 -8.707532996728973E-004 -2.348530038859276E-005  9.597203470107979E-005
 -2.000046691415929E-003 -3.232097935369400E-005  1.854781840454219E-004
 -3.563728299883827E-003 -4.288713329138123E-005  2.294836297791772E-004
 -4.857856670884554E-003 -4.245624930226682E-005  2.047242419440679E-004
 -6.435776046802982E-003 -4.374110983014800E-005  2.054051942355519E-004
 -7.681620284552296E-003 -3.979565805050320E-005  1.793565914257772E-004
 -9.179735756160391E-003 -3.844517722133866E-005  1.872769765003596E-004
 -1.030259349073321E-002 -3.200975238475672E-005  1.485355962873828E-004
 -1.156376535951245E-002 -2.929843347322918E-005  1.529434980986142E-004
 -1.244387249765995E-002 -2.125971848282466E-005  9.483074478142115E-005
 -1.330358023442004E-002 -1.877890285690252E-005  1.021983892996763E-004
 -1.389125579333747E-002 -1.054479624345398E-005  5.243308913618271E-005
 -1.439590116709810E-002 -8.503362305465453E-006  6.993482127236195E-005
 -1.472573576179074E-002 -1.872250046731426E-007  3.265953065126205E-005
 -1.497719283652238E-002  2.352779329570423E-006  5.766328520166784E-005
 -1.508734396272783E-002  1.194472099014041E-005  1.974182632981190E-005
 -1.512185485318318E-002  1.651005009168392E-005  4.297194318312931E-005
 -1.500123271374373E-002  2.907591649619113E-005 -1.927328877332670E-005
 -1.473651928175991E-002  3.673819657870654E-005 -1.535316919650173E-005
 -1.429891842356125E-002  5.261534308911638E-005 -1.271175888221579E-004
 -1.354967522304543E-002  6.175433939477912E-005 -1.550233766573102E-004
 -1.268953048706256E-002  7.737400689048060E-005 -3.029318615369137E-004
 -1.135456599212539E-002  8.313881955282138E-005 -3.348762389894303E-004
 -1.013848308372337E-002  9.329018302846181E-005 -4.429071713265192E-004
 -8.454341212114165E-003  9.448243687269435E-005 -4.565194546037911E-004
 -7.052625288559195E-003  9.861056989032614E-005 -5.214342649330142E-004
 -5.243624570141771E-003  9.436843651123904E-005 -5.241209056336063E-004
 -3.783107571596920E-003  8.995156732936871E-005 -5.491617667492177E-004
 -2.031126159036346E-003  7.149413325766612E-005 -4.687563573410177E-004
 -8.447707877046433E-004  5.062109990674262E-005 -3.134222500115832E-004
  1.909177432345730E-004  8.256489707189105E-006  9.134880848410182E-005
  1.596205828353701E-004  2.731824029866688E-005 -2.053207517236985E-004
 -8.118351788190775E-004 -6.491198640433636E-005  6.338344993430341E-005
 -1.834951201009700E-003 -9.221261107164538E-005  1.378616216174559E-004
 -3.292364888397368E-003 -1.237652824498486E-004  1.759864883200550E-004
 -4.479920753941812E-003 -1.235430392894603E-004  1.519981152673701E-004
 -5.953780942371726E-003 -1.273416182124591E-004  1.546555584038377E-004
 -7.101384806736557E-003 -1.168268632552580E-004  1.312773807253796E-004
 -8.504085104510886E-003 -1.125081142949243E-004  1.430679746726284E-004
 -9.542735271218787E-003 -9.490219620919574E-005  1.092602542290864E-004
 -1.072805843935611E-002 -8.637137061547172E-005  1.199083895750608E-004
 -1.154823724176742E-002 -6.401064788236068E-005  6.840326559042831E-005
 -1.235943073162349E-002 -5.578816257823714E-005  8.203799547132751E-005
 -1.291162347526683E-002 -3.274358723765910E-005  3.826842430602500E-005
 -1.339074986683392E-002 -2.552526166673618E-005  6.103365971968592E-005
 -1.370389273961025E-002 -2.145453096573772E-006  2.901267116513856E-005
 -1.394658544745870E-002  6.724996138413655E-006  5.918162091397102E-005
 -1.405520083495955E-002  3.397912992220268E-005  2.723542851067679E-005
 -1.409588247357259E-002  4.901456293627799E-005  5.737429013622589E-005
 -1.399040381049365E-002  8.531236736582607E-005  3.968597962725859E-006
 -1.375140376755859E-002  1.098263146168998E-004  1.831564306297972E-005
 -1.335265883345675E-002  1.564780486851895E-004 -8.059301522230820E-005
 -1.265769387723806E-002  1.858478348347321E-004 -9.565379287276149E-005
 -1.186604442962193E-002  2.324142048152298E-004 -2.302048108493049E-004
 -1.061515346203105E-002  2.519025714492551E-004 -2.530798653084556E-004
 -9.487447630754178E-003  2.820387815143349E-004 -3.535378842447895E-004
 -7.902205876184993E-003  2.869507384469061E-004 -3.631152940391576E-004
 -6.598178425061098E-003  2.983777395657502E-004 -4.250574215633090E-004
 -4.894543122681710E-003  2.857722939026744E-004 -4.273562774842110E-004
 -3.539214717849462E-003  2.712431431390959E-004 -4.551103418247877E-004
 -1.893544496939460E-003  2.159541430979195E-004 -3.878958225845114E-004
 -8.044468766526701E-004  1.532275233693714E-004 -2.596150627314704E-004
  1.813915509772826E-004  2.806984532110757E-005  9.090709309371794E-005
  1.551504491069196E-004  2.175191772448476E-005 -1.842423632171279E-004
 -6.644811736679251E-004 -8.686602282169107E-005 -5.742777339271066E-006
 -1.443039564791051E-003 -1.158145767974256E-004  3.619821715622368E-005
 -2.636949423311857E-003 -1.482472915917410E-004  6.123627541283872E-005
 -3.566971261391017E-003 -1.451733559747799E-004  3.950632949889203E-005
 -4.778825716812055E-003 -1.510312544331937E-004  4.506694255554032E-005
 -5.685313894778927E-003 -1.369425698667105E-004  2.762804471811290E-005
 -6.844824170787799E-003 -1.356132988109809E-004  4.526703017043753E-005
 -7.673168554681486E-003 -1.124604026714943E-004  2.247019479584897E-005
 -8.660480294613585E-003 -1.065306093198797E-004  4.377721014542938E-005
 -9.325665864945312E-003 -7.651918049477774E-005  8.229015915858077E-006
 -1.000624112093375E-002 -7.117206056264243E-005  3.296015518189774E-005
 -1.046250308952889E-002 -4.067018525392871E-005  3.654913904201478E-006
 -1.086941678920365E-002 -3.749301322478177E-005  3.503480829868692E-005
 -1.113387791837485E-002 -7.909601234163064E-006  1.488936534062422E-005
 -1.134714836290371E-002 -4.380309950489077E-006  5.261475966777967E-005
 -1.144556059617349E-002  2.801209986908201E-005  3.319741982322416E-005
 -1.149451062163562E-002  3.671402489778834E-005  7.372747692103555E-005
 -1.142054562226940E-002  7.791304632243235E-005  3.899177469744041E-005
 -1.123942438571975E-002  9.594175223697117E-005  7.122098065268912E-005
 -1.093135783804462E-002  1.484395032845556E-004  1.394025701093765E-006
 -1.036900596248098E-002  1.724275564694925E-004  1.127840807292038E-005
 -9.744335681637833E-003  2.261138883517317E-004 -9.004018547445581E-005
 -8.708956019699642E-003  2.415953590614257E-004 -9.352432046424305E-005
 -7.804754160424128E-003  2.781539019180305E-004 -1.731870021681296E-004
 -6.480017814332963E-003  2.802946868230831E-004 -1.738189159612736E-004
 -5.427114550772684E-003  2.972246302799627E-004 -2.262891779113116E-004
 -4.002023925969697E-003  2.841230725139549E-004 -2.273138622290862E-004
 -2.913418753304917E-003  2.753195058349607E-004 -2.581292816686620E-004
 -1.542919073453199E-003  2.214840155301620E-004 -2.174848503198070E-004
 -6.890970247298088E-004  1.605217989168441E-004 -1.445043553972972E-004
  1.615604476102092E-004  2.282104422204582E-005  9.086461176885702E-005
  1.398399932147759E-004  4.152735681049646E-006 -1.559788880656877E-004
 -3.234321510772279E-004 -6.513534787885644E-005 -1.094964846409564E-004
 -6.719976384806131E-004 -8.305974253979417E-005 -1.148321251083930E-004
 -1.313182835395724E-003 -1.002019146341029E-004 -1.095422438143237E-004
 -1.754584210577284E-003 -9.619642817209157E-005 -1.253735098065382E-004
 -2.403879975591704E-003 -1.005526677460874E-004 -1.186167852087561E-004
 -2.836188518394974E-003 -8.994894123993705E-005 -1.253553979122664E-004
 -3.461786011467818E-003 -9.150962419756111E-005 -1.051460619093916E-004
 -3.863228433477143E-003 -7.447419323422782E-005 -1.083590664741521E-004
 -4.401916493254621E-003 -7.330455765141920E-005 -7.836802095417285E-005
 -4.735482658955555E-003 -5.101682300288981E-005 -8.357936676814035E-005
 -5.110165712411858E-003 -5.041512668329248E-005 -4.944100719119925E-005
 -5.348376513232712E-003 -2.810654118748710E-005 -5.209710623623759E-005
 -5.577053853090406E-003 -2.971622571317073E-005 -1.656794164826933E-005
 -5.721614675163993E-003 -9.028334686796812E-006 -1.707344658006514E-005
 -5.850010729754591E-003 -1.169499551101206E-005  2.049741429225566E-005
 -5.911212877339087E-003  9.417192078169757E-006  1.938397980737382E-005
 -5.956349470406450E-003  8.440987635890245E-006  6.074376123705748E-005
 -5.932199445931131E-003  3.367841550156544E-005  5.353416823715924E-005
 -5.855162604223547E-003  3.723360037803302E-005  9.606393185764231E-005
 -5.715685353453482E-003  6.874156799264564E-005  7.365623027969478E-005
 -5.425415086225402E-003  7.615725119831903E-005  1.078883210275131E-004
 -5.125605129211724E-003  1.090348613245748E-004  6.797893385049714E-005
 -4.561912972627888E-003  1.132828042095391E-004  8.859356918430956E-005
 -4.113986198815745E-003  1.370532349336553E-004  5.308827165855232E-005
 -3.380856428260051E-003  1.359139880929470E-004  6.506730835324395E-005
 -2.851463269070281E-003  1.494276993264109E-004  3.743074666280382E-005
 -2.059850031955957E-003  1.429943023538042E-004  4.049458514983814E-005
 -1.512085970278225E-003  1.436812051371557E-004  1.590979310145581E-005
 -7.514346057575807E-004  1.177827480721797E-004  2.438681564850605E-005
 -3.475084962595412E-004  8.628587038352052E-005  2.688619424785181E-005
  1.404259706357282E-004  4.940538930446246E-006  9.640121138269766E-005
  8.512969477996939E-005 -8.390788993580789E-005  3.725780615188731E-004
 -6.978600423786866E-004 -1.662324511248534E-005  7.521781548279563E-004
 -1.393890141390609E-003 -2.023497394740097E-005  8.449584079745549E-004
 -2.447743173604919E-003 -7.605062788418447E-006  9.137072291038483E-004
 -3.273238017464330E-003 -1.461086031505786E-005  8.942849507389071E-004
 -4.362475906945942E-003 -8.731648855046454E-006  9.272115254488246E-004
 -5.173311981606696E-003 -1.627872665944721E-005  8.705107708566495E-004
 -6.219161783296113E-003 -8.580926979413293E-006  8.982012010286481E-004
 -6.957702358326294E-003 -1.669146104379126E-005  7.765263957119942E-004
 -7.847588096212423E-003 -6.345318041781641E-006  7.820504710304051E-004
 -8.441880930706422E-003 -1.475925967016042E-005  5.862056213489251E-004
 -9.053042861890523E-003 -1.902587520775674E-006  5.692177256869521E-004
 -9.461643336162074E-003 -1.219392872713630E-005  3.815583328302179E-004
 -9.825953265832457E-003  4.088151622341542E-007  3.649079777611853E-004
 -1.005934837811532E-002 -1.199997369881526E-005  2.139966182602372E-004
 -1.024775444729241E-002 -8.122123628125438E-007  2.077025514416498E-004
 -1.032592435547206E-002 -1.545976182006778E-005  7.608045236281218E-005